<?xml version="1.0" encoding="ISO-8859-1"?>
<modeling>
 <generator>
  <i name="program" type="string">vasp</i>
  <i name="version" type="string">4.6.28 </i>
  <i name="subversion" type="string">25Jul05 complex  serial</i>
  <i name="platform" type="string">LinuxIFC</i>
  <i name="date" type="string">2017 10 25</i>
  <i name="time" type="string">14:31:57</i>
 </generator>
 <incar>
