 vasp.4.6.28 25Jul05 complex 
 executed on             LinuxIFC date 2017.10.25  14:33:58
 serial version


--------------------------------------------------------------------------------------------------------


 INCAR:
 POTCAR:   PAW_PBE Pb_d 06Sep2000                 
 POTCAR:    PAW_PBE S 17Jan2003                   
 POTCAR:   PAW_PBE Pb_d 06Sep2000                 
   VRHFIN =Pb:                                                                  
   LEXCH  = PE                                                                  
   EATOM  =  1661.2015 eV,  122.0949 Ry                                         
                                                                                
   TITEL  = PAW_PBE Pb_d 06Sep2000                                              
   LULTRA =        F    use ultrasoft PP ?                                      
   IUNSCR =        1    unscreen: 0-lin 1-nonlin 2-no                           
   RPACOR =    2.200    partial core radius                                     
   POMASS =  207.200; ZVAL   =   14.000    mass and valenz                      
   RCORE  =    2.500    outmost cutoff radius                                   
   RWIGS  =    3.260; RWIGS  =    1.725    wigner-seitz radius (au A)           
   ENMAX  =  237.846; ENMIN  =  178.384 eV                                      
   ICORE  =        3    local potential                                         
   LCOR   =        T    correct aug charges                                     
   LPAW   =        T    paw PP                                                  
   EAUG   =  391.914                                                            
   DEXC   =    -.003                                                            
   RMAX   =    2.990    core radius for proj-oper                               
   RAUG   =    1.300    factor for augmentation sphere                          
   RDEP   =    2.643    radius for radial grids                                 
   QCUT   =   -4.181; QGAM   =    8.362    optimization parameters              
                                                                                
   Description                                                                  
     l     E      TYP  RCUT    TYP  RCUT                                        
     2   .000     23  2.500                                                     
     2   .100     23  2.500                                                     
     0   .000     23  2.500                                                     
     0  1.000     23  2.500                                                     
     1   .000     23  2.500                                                     
     1  1.000     23  2.500                                                     
     3  -.100      7  2.500                                                     
  local pseudopotential read in
  partial core-charges read in
  atomic valenz-charges read in
  non local Contribution for L=           2  read in
    real space projection operators read in
  non local Contribution for L=           2  read in
    real space projection operators read in
  non local Contribution for L=           0  read in
    real space projection operators read in
  non local Contribution for L=           0  read in
    real space projection operators read in
  non local Contribution for L=           1  read in
    real space projection operators read in
  non local Contribution for L=           1  read in
    real space projection operators read in
    PAW grid and wavefunctions read in
 
   number of l-projection  operators is LMAX  =           6
   number of lm-projection operators is LMMAX =          18
 
 POTCAR:    PAW_PBE S 17Jan2003                   
   VRHFIN =S : s2p4                                                             
   LEXCH  = PE                                                                  
   EATOM  =   276.8230 eV,   20.3459 Ry                                         
                                                                                
   TITEL  = PAW_PBE S 17Jan2003                                                 
   LULTRA =        F    use ultrasoft PP ?                                      
   IUNSCR =        1    unscreen: 0-lin 1-nonlin 2-no                           
   RPACOR =    1.500    partial core radius                                     
   POMASS =   32.066; ZVAL   =    6.000    mass and valenz                      
   RCORE  =    1.900    outmost cutoff radius                                   
   RWIGS  =    2.200; RWIGS  =    1.164    wigner-seitz radius (au A)           
   ENMAX  =  280.000; ENMIN  =  194.016 eV                                      
   ICORE  =        2    local potential                                         
   LCOR   =        T    correct aug charges                                     
   LPAW   =        T    paw PP                                                  
   EAUG   =  335.092                                                            
   DEXC   =     .000                                                            
   RMAX   =    2.867    core radius for proj-oper                               
   RAUG   =    1.300    factor for augmentation sphere                          
   RDEP   =    1.954    radius for radial grids                                 
   QCUT   =   -4.360; QGAM   =    8.721    optimization parameters              
                                                                                
   Description                                                                  
     l     E      TYP  RCUT    TYP  RCUT                                        
     0   .000     23  1.900                                                     
     0   .000     23  1.900                                                     
     1   .000     23  1.900                                                     
     1   .000     23  1.900                                                     
     2   .000     23  1.900                                                     
  local pseudopotential read in
  partial core-charges read in
  atomic valenz-charges read in
  non local Contribution for L=           0  read in
    real space projection operators read in
  non local Contribution for L=           0  read in
    real space projection operators read in
  non local Contribution for L=           1  read in
    real space projection operators read in
  non local Contribution for L=           1  read in
    real space projection operators read in
    PAW grid and wavefunctions read in
 
   number of l-projection  operators is LMAX  =           4
   number of lm-projection operators is LMMAX =           8
 
 Optimization of the real space projectors (old method)

 maximal supplied QI-value         = 15.12
 optimisation between [QCUT,QGAM] = [ 10.13, 20.41] = [ 28.73,116.64] Ry 
 Optimized for a Real-space Cutoff    1.22 Angstroem

   l      QCUT      X(QCUT)   X(cont)   X(QGAM) max X(q)   W(low)/max W(high)/max e(spline) 
   2     10.129    -0.026    -0.087     0.016     4.853    0.19E-01    0.48E-02    0.31E-02
   2     10.129    -1.030    -1.104     0.020     9.899    0.14E-01    0.28E-02    0.25E-02
   0     10.129     0.014     0.019    -0.001     7.944    0.27E-02    0.11E-03    0.44E-03
   0     10.129     0.045     0.192    -0.026    11.565    0.58E-01    0.31E-02    0.87E-02
   1     10.129     0.040     0.049     0.009     7.967    0.33E-02    0.19E-02    0.83E-03
   1     10.129    -2.619    -2.778    -0.176    29.642    0.19E-01    0.99E-02    0.41E-02
 Optimization of the real space projectors (old method)

 maximal supplied QI-value         = 19.84
 optimisation between [QCUT,QGAM] = [ 10.12, 20.44] = [ 28.68,116.96] Ry 
 Optimized for a Real-space Cutoff    1.22 Angstroem

   l      QCUT      X(QCUT)   X(cont)   X(QGAM) max X(q)   W(low)/max W(high)/max e(spline) 
   0     10.119    -0.044    -0.043     0.000     5.487    0.56E-04    0.22E-04    0.12E-05
   0     10.119    -9.305    -9.369     0.010    85.627    0.21E-03    0.27E-03    0.16E-03
   1     10.119    -0.102    -0.102     0.000     3.530    0.42E-04    0.34E-05    0.80E-05
   1     10.119     7.583     7.392     0.019    42.714    0.17E-03    0.83E-03    0.23E-03
 PAW_PBE Pb_d 06Sep2000                 :
 energy of atom  1       EATOM=-1661.2015
 kinetic energy error for atom=    0.0069 (will be added to EATOM!!)
  PAW_PBE S 17Jan2003                   :
 energy of atom  2       EATOM= -276.8230
 kinetic energy error for atom=    0.0046 (will be added to EATOM!!)
 
 EXHCAR: internal setup
 exchange correlation table for  LEXCH =        8
   RHO(1)=    0.500       N(1)  =     2000
   RHO(2)=  100.500       N(2)  =     4000
 
 POSCAR: Pb S                                    
  positions in direct lattice
  No initial velocities read in
 


--------------------------------------------------------------------------------------------------------


 ion  position               nearest neighbor table
   1  0.312  0.406  0.406-  59 3.01  62 3.01  56 3.01
   2  0.406  0.312  0.406-  57 3.01  70 3.01  56 3.01
   3  0.406  0.406  0.312-  60 3.01  71 3.01  56 3.01
   4  0.312  0.312  0.500-  57 3.01  59 3.01
   5  0.312  0.406  0.594-  59 3.01  65 3.01  58 3.01
   6  0.406  0.312  0.594-  57 3.01  74 3.01  58 3.01
   7  0.406  0.406  0.500-  56 3.01  58 3.01  63 3.01  75 3.01  57 3.01  59 3.01
   8  0.406  0.406  0.688-  67 3.01  76 3.01  58 3.01
   9  0.312  0.500  0.312-  60 3.01  62 3.01
  10  0.312  0.594  0.406-  62 3.01  66 3.01  61 3.01
  11  0.406  0.500  0.406-  56 3.01  61 3.01  63 3.01  79 3.01  60 3.01  62 3.01
  12  0.406  0.594  0.312-  60 3.01  80 3.01  61 3.01
  13  0.312  0.500  0.500-  59 3.01  62 3.01  65 3.01  66 3.01  63 3.01
  14  0.312  0.594  0.594-  65 3.01  66 3.01  64 3.01
  15  0.406  0.500  0.594-  58 3.01  63 3.01  64 3.01  83 3.01  67 3.01  65 3.01
  16  0.406  0.594  0.500-  61 3.01  63 3.01  64 3.01  84 3.01  68 3.01  66 3.01
  17  0.312  0.500  0.688-  65 3.01  67 3.01
  18  0.406  0.594  0.688-  67 3.01  86 3.01  64 3.01
  19  0.406  0.688  0.406-  68 3.01  87 3.01  61 3.01
  20  0.312  0.688  0.500-  66 3.01  68 3.01
  21  0.406  0.688  0.594-  68 3.01  89 3.01  64 3.01
  22  0.500  0.312  0.312-  70 3.01  71 3.01
  23  0.500  0.406  0.406-  56 3.01  69 3.01  75 3.01  79 3.01  70 3.01  71 3.01
  24  0.594  0.312  0.406-  70 3.01  72 3.01  69 3.01
  25  0.594  0.406  0.312-  71 3.01  77 3.01  69 3.01
  26  0.500  0.312  0.500-  57 3.01  70 3.01  72 3.01  74 3.01  75 3.01
  27  0.500  0.406  0.594-  58 3.01  73 3.01  75 3.01  83 3.01  76 3.01  74 3.01
  28  0.594  0.312  0.594-  72 3.01  74 3.01  73 3.01
  29  0.594  0.406  0.500-  69 3.01  73 3.01  75 3.01  81 3.01  72 3.01  90 3.01
  30  0.500  0.312  0.688-  74 3.01  76 3.01
  31  0.594  0.406  0.688-  76 3.01  85 3.01  73 3.01
  32  0.500  0.500  0.312-  60 3.01  71 3.01  77 3.01  80 3.01  79 3.01
  33  0.500  0.594  0.406-  61 3.01  78 3.01  79 3.01  84 3.01  80 3.01  87 3.01
  34  0.594  0.500  0.406-  69 3.01  78 3.01  79 3.01  81 3.01  77 3.01  91 3.01
  35  0.594  0.594  0.312-  77 3.01  80 3.01  78 3.01
  36  0.500  0.500  0.500-  63 3.01  75 3.01  79 3.01  81 3.01  83 3.01  84 3.01
  37  0.500  0.594  0.594-  64 3.01  82 3.01  83 3.01  84 3.01  86 3.01  89 3.01
  38  0.594  0.500  0.594-  73 3.01  81 3.01  82 3.01  83 3.01  85 3.01  92 3.01
  39  0.594  0.594  0.500-  78 3.01  81 3.01  82 3.01  84 3.01  88 3.01  93 3.01
  40  0.500  0.500  0.688-  67 3.01  76 3.01  85 3.01  86 3.01  83 3.01
  41  0.594  0.594  0.688-  85 3.01  86 3.01  82 3.01
  42  0.500  0.688  0.312-  80 3.01  87 3.01
  43  0.594  0.688  0.406-  87 3.01  88 3.01  78 3.01
  44  0.500  0.688  0.500-  68 3.01  87 3.01  88 3.01  89 3.01  84 3.01
  45  0.594  0.688  0.594-  88 3.01  89 3.01  82 3.01
  46  0.500  0.688  0.688-  86 3.01  89 3.01
  47  0.688  0.406  0.406-  90 3.01  91 3.01  69 3.01
  48  0.688  0.312  0.500-  72 3.01  90 3.01
  49  0.688  0.406  0.594-  90 3.01  92 3.01  73 3.01
  50  0.688  0.500  0.312-  77 3.01  91 3.01
  51  0.688  0.594  0.406-  91 3.01  93 3.01  78 3.01
  52  0.688  0.500  0.500-  90 3.01  91 3.01  92 3.01  93 3.01  81 3.01
  53  0.688  0.594  0.594-  92 3.01  93 3.01  82 3.01
  54  0.688  0.500  0.688-  85 3.01  92 3.01
  55  0.688  0.688  0.500-  88 3.01  93 3.01
  56  0.406  0.406  0.406-   7 3.01  11 3.01  23 3.01   1 3.01   2 3.01   3 3.01
  57  0.406  0.312  0.500-   2 3.01   6 3.01  26 3.01   7 3.01   4 3.01
  58  0.406  0.406  0.594-   7 3.01  15 3.01  27 3.01   8 3.01   6 3.01   5 3.01
  59  0.312  0.406  0.500-   1 3.01   5 3.01  13 3.01   7 3.01   4 3.01
  60  0.406  0.500  0.312-   3 3.01  12 3.01  32 3.01   9 3.01  11 3.01
  61  0.406  0.594  0.406-  11 3.01  16 3.01  33 3.01  10 3.01  19 3.01  12 3.01
  62  0.312  0.500  0.406-   1 3.01  10 3.01  13 3.01  11 3.01   9 3.01
  63  0.406  0.500  0.500-   7 3.01  11 3.01  15 3.01  16 3.01  36 3.01  13 3.01
  64  0.406  0.594  0.594-  15 3.01  16 3.01  37 3.01  18 3.01  21 3.01  14 3.01
  65  0.312  0.500  0.594-   5 3.01  13 3.01  14 3.01  15 3.01  17 3.01
  66  0.312  0.594  0.500-  10 3.01  13 3.01  14 3.01  16 3.01  20 3.01
  67  0.406  0.500  0.688-   8 3.01  18 3.01  40 3.01  15 3.01  17 3.01
  68  0.406  0.688  0.500-  19 3.01  21 3.01  44 3.01  16 3.01  20 3.01
  69  0.594  0.406  0.406-  23 3.01  29 3.01  34 3.01  24 3.01  25 3.01  47 3.01
  70  0.500  0.312  0.406-   2 3.01  24 3.01  26 3.01  22 3.01  23 3.01
  71  0.500  0.406  0.312-   3 3.01  25 3.01  32 3.01  22 3.01  23 3.01
  72  0.594  0.312  0.500-  24 3.01  26 3.01  28 3.01  29 3.01  48 3.01
  73  0.594  0.406  0.594-  27 3.01  29 3.01  38 3.01  31 3.01  28 3.01  49 3.01
  74  0.500  0.312  0.594-   6 3.01  26 3.01  28 3.01  27 3.01  30 3.01
  75  0.500  0.406  0.500-   7 3.01  23 3.01  27 3.01  29 3.01  36 3.01  26 3.01
  76  0.500  0.406  0.688-   8 3.01  31 3.01  40 3.01  27 3.01  30 3.01
  77  0.594  0.500  0.312-  25 3.01  32 3.01  35 3.01  34 3.01  50 3.01
  78  0.594  0.594  0.406-  33 3.01  34 3.01  39 3.01  35 3.01  43 3.01  51 3.01
  79  0.500  0.500  0.406-  11 3.01  23 3.01  33 3.01  34 3.01  36 3.01  32 3.01
  80  0.500  0.594  0.312-  12 3.01  32 3.01  35 3.01  33 3.01  42 3.01
  81  0.594  0.500  0.500-  29 3.01  34 3.01  36 3.01  38 3.01  39 3.01  52 3.01
  82  0.594  0.594  0.594-  37 3.01  38 3.01  39 3.01  41 3.01  45 3.01  53 3.01
  83  0.500  0.500  0.594-  15 3.01  27 3.01  36 3.01  37 3.01  38 3.01  40 3.01
  84  0.500  0.594  0.500-  16 3.01  33 3.01  36 3.01  37 3.01  39 3.01  44 3.01
  85  0.594  0.500  0.688-  31 3.01  40 3.01  41 3.01  38 3.01  54 3.01
  86  0.500  0.594  0.688-  18 3.01  40 3.01  41 3.01  37 3.01  46 3.01
  87  0.500  0.688  0.406-  19 3.01  43 3.01  44 3.01  33 3.01  42 3.01
  88  0.594  0.688  0.500-  43 3.01  44 3.01  45 3.01  39 3.01  55 3.01
  89  0.500  0.688  0.594-  21 3.01  44 3.01  45 3.01  37 3.01  46 3.01
  90  0.688  0.406  0.500-  47 3.01  49 3.01  52 3.01  29 3.01  48 3.01
  91  0.688  0.500  0.406-  47 3.01  51 3.01  52 3.01  34 3.01  50 3.01
  92  0.688  0.500  0.594-  49 3.01  52 3.01  53 3.01  38 3.01  54 3.01
  93  0.688  0.594  0.500-  51 3.01  52 3.01  53 3.01  39 3.01  55 3.01
 

IMPORTANT INFORMATION: All symmetrisations will be switched off!
NOSYMM: (Re-)initialisation of all symmetry stuff for point group C_1.

 
 
 KPOINTS: KPOINTS                                 

Automatic generation of k-mesh.
 
 Subroutine IBZKPT returns following result:
 ===========================================
 
 Found      1 irreducible k-points:
 
 Following reciprocal coordinates:
            Coordinates               Weight
  0.000000  0.000000  0.000000      1.000000
 
 Following cartesian coordinates:
            Coordinates               Weight
  0.000000  0.000000  0.000000      1.000000
 
