 vasp.4.6.28 25Jul05 complex 
 POSCAR found :  2 types and    8 ions
 LDA part: xc-table for Pade appr. of Perdew
 memory requirements are:

 energy cutoff:                   ENCUT         500.00
 energy cutoff (augmentation):    ENAUG         391.91
 memory requirements are:

 number of kpoints                NKPTS               84
 number of bands                  NBANDS              50
 number of grid points            MPLWV           451584
 number of plane waves            NRPLWV            6119
 real space IRMAX              1  IRDMAX           27210
 arrays on large grid (10 + NTYP)*MPLWVM*16    158957568
 3 sets of wavefunctions                      2525241600
 projectors in real space                              0
 projectors in reciprocal space                148814080
---------------------------------------------------------
 gives a total  of   2833.0 Mbytes       or   2833013248
 add 5-10 Mbytes for executable (depends on OS)


  NGX = 48; NGY = 48; NGZ = 48
  NGXF= 96; NGYF= 96; NGZF= 96
  NBANDS=  50; NBLK= 256

